50 chains with spacer length N=7

     2750  atoms
     2450  bonds
     0  angles
     0  dihedrals
     0  impropers

     9  atom types
     2  bond types
     0  angle types
     0  dihedral types
     0  improper types

  0 14.2634 xlo xhi
  0 14.2634 ylo yhi
  0 14.2634 zlo zhi

Masses

1 1.0  # U
2 0.99  # CL
3 0.99  # CH
4 0.99  # CIL
5 0.99  # CIH
6 0.01  # D1
7 0.01  # D2
8 0.01  # D3
9 0.01  # D4

Atoms  # full

1 1 1 0.0 2.0 7.0 12.0
2 1 1 0.0 2.0 8.0 12.0
3 1 1 0.0 2.0 9.0 12.0
4 1 1 0.0000 2.0 9.0 13.0
5 1 3 3.3901 1.6 8.717157287525382 12.717157287525382
6 1 7 -4.3901 1.59999 8.717150216457568 12.717150216457568
7 2 5 1.9817 1.2 8.434314575050761 12.434314575050761
8 2 9 -0.9817 1.1999900000000001 8.43430750398295 12.43430750398295
9 1 1 0.0 2.0 8.0 13.0
10 1 1 0.0 1.9999999999999998 7.0 13.0
11 1 1 0.0 1.0 7.0 13.0
12 1 1 0.0 1.0 8.0 13.0
13 1 1 0.0 0.9999999999999999 9.0 13.0
14 1 1 0.0 1.0 10.0 13.0
15 1 1 0.0000 2.0 10.0 13.0
16 1 3 3.3901 1.8276142374915396 9.489543050033841 12.82761423749154
17 1 7 -4.3901 1.827609927847477 9.489530288610093 12.827609927847476
18 3 5 1.9817 1.6552284749830792 8.979086100067683 12.65522847498308
19 3 9 -0.9817 1.6552241653390167 8.979073338643934 12.655224165339016
20 1 1 0.0 2.0 10.0 12.0
21 1 1 0.0 2.0 11.0 12.0
22 1 1 0.0 3.0 11.0 12.0
23 1 1 0.0 3.9999999999999996 11.0 12.0
24 1 1 0.0 4.0 12.0 12.0
25 1 1 0.0 3.0 12.0 12.0
26 1 1 0.0000 2.0 12.0 12.0
27 1 3 3.3901 1.6109117634475467 12.13122762038917 11.610911763447547
28 1 7 -4.3901 1.6109020362416329 12.13123090107968 11.610902036241633
29 4 5 1.9817 1.2218235268950934 12.262455240778342 11.221823526895093
30 4 9 -0.9817 1.2218137996891796 12.262458521468853 11.22181379968918
31 1 1 0.0 2.0 12.0 13.0
32 1 1 0.0 1.0 12.0 13.0
33 1 1 0.0 1.0 11.0 13.0
34 1 1 0.0 2.0 11.0 13.0
35 1 1 0.0 3.0 11.0 13.0
36 1 1 0.0 3.0 12.0 13.0
37 1 1 0.0000 4.0 12.0 13.0
38 1 3 3.3901 4.0 11.692859459294354 12.524958224726452
39 1 7 -4.3901 4.0 11.692851780780837 12.524946348682072
40 5 5 1.9817 4.0 11.385718918588708 12.049916449452905
41 5 9 -0.9817 4.0 11.38571124007519 12.049904573408524
42 1 1 0.0 5.0 12.0 13.0
43 1 1 0.0 6.0 12.0 13.0
44 1 1 0.0 6.0 12.0 12.0
45 1 1 0.0 6.0 11.0 12.0
46 1 1 0.0 6.0 10.0 12.0
47 1 1 0.0 7.0 10.0 12.0
48 1 1 0.0000 7.999999999999999 10.0 12.0
49 1 3 3.3901 7.9072080597438426 9.44974613890769 12.092791940256157
50 1 7 -4.3901 7.9072057399453355 9.449732382561162 12.092794260054664
51 6 5 1.9817 7.814416119487685 8.89949227781538 12.185583880512313
52 6 9 -0.9817 7.814413799689179 8.899478521468852 12.18558620031082
53 1 1 0.0 8.0 10.0 13.0
54 1 1 0.0 8.0 11.0 13.0
55 1 1 0.0 8.0 11.0 12.0
56 7 1 0.0 8.0 11.0 11.0
57 7 1 0.0 8.0 10.0 11.0
58 7 1 0.0 9.0 10.0 11.0
59 7 1 0.0000 10.0 10.0 11.0
60 7 3 3.3901 10.282842712474618 10.282842712474618 11.4
61 7 7 -4.3901 10.282849783542432 10.282849783542432 11.40001
62 8 5 1.9817 10.565685424949239 10.565685424949239 11.8
63 8 9 -0.9817 10.56569249601705 10.56569249601705 11.80001
64 7 1 0.0 10.0 9.0 11.0
65 7 1 0.0 10.0 8.0 11.0
66 7 1 0.0 9.0 8.0 11.0
67 7 1 0.0 9.0 9.0 11.0
68 7 1 0.0 9.0 9.0 10.0
69 7 1 0.0 9.0 9.0 9.0
70 7 1 0.0000 9.0 8.0 9.0
71 7 3 3.3901 8.489543050033841 8.0 8.756209716700507
72 7 7 -4.3901 8.489530288610093 8.0 8.756203621943426
73 9 5 1.9817 7.979086100067683 8.0 8.512419433401016
74 9 9 -0.9817 7.979073338643934 8.0 8.512413338643933
75 7 1 0.0 9.0 7.0 9.0
76 7 1 0.0 8.0 7.0 9.0
77 7 1 0.0 8.0 8.0 9.0
78 7 1 0.0 7.0 8.0 9.0
79 7 1 0.0 7.0 8.0 8.0
80 7 1 0.0 7.0 8.0 7.0
81 7 1 0.0000 7.999999999999999 8.0 7.0
82 7 3 3.3901 7.999999999999999 8.4 7.4
83 7 7 -4.3901 7.999999999999999 8.40001 7.40001
84 10 5 1.9817 7.999999999999999 8.8 7.8
85 10 9 -0.9817 7.999999999999999 8.80001 7.80001
86 7 1 0.0 9.0 8.0 7.0
87 7 1 0.0 9.0 8.0 6.0
88 7 1 0.0 9.0 8.0 5.0
89 7 1 0.0 10.0 7.999999999999999 5.0
90 7 1 0.0 10.0 8.0 4.0
91 7 1 0.0 10.0 8.0 3.0
92 7 1 0.0000 10.0 8.0 1.9999999999999998
93 7 3 3.3901 10.4 8.4 1.9999999999999998
94 7 7 -4.3901 10.40001 8.40001 1.9999999999999998
95 11 5 1.9817 10.8 8.8 1.9999999999999996
96 11 9 -0.9817 10.80001 8.80001 1.9999999999999996
97 7 1 0.0 10.0 8.0 1.0
98 7 1 0.0 10.0 7.0 1.0
99 7 1 0.0 11.0 7.0 1.0
100 7 1 0.0 12.0 7.0 1.0
101 7 1 0.0 12.0 8.0 1.0
102 7 1 0.0 11.0 8.0 1.0
103 7 1 0.0000 11.0 8.0 2.0
104 7 3 3.3901 10.756209716700507 7.639052429175127 1.6390524291751272
105 7 7 -4.3901 10.756203621943426 7.6390434054858565 1.6390434054858567
106 12 5 1.9817 10.512419433401016 7.278104858350254 1.2781048583502543
107 12 9 -0.9817 10.512413338643933 7.278095834660983 1.2780958346609839
108 7 1 0.0 11.0 7.0 2.0
109 7 1 0.0 10.0 7.0 2.0
110 7 1 0.0 10.0 7.0 3.0
111 13 1 0.0 9.0 7.0 3.0
112 13 1 0.0 9.0 7.999999999999999 3.0
113 13 1 0.0 9.0 9.0 3.0
114 13 1 0.0000 8.0 9.0 3.0
115 13 3 3.3901 7.639052429175127 8.756209716700507 3.360947570824873
116 13 7 -4.3901 7.6390434054858565 8.756203621943426 3.360956594514144
117 14 5 1.9817 7.278104858350254 8.512419433401016 3.7218951416497466
118 14 9 -0.9817 7.278095834660983 8.512413338643933 3.7219041653390175
119 13 1 0.0 7.999999999999999 9.0 2.0
120 13 1 0.0 8.0 10.0 2.0
121 13 1 0.0 8.0 11.0 2.0
122 13 1 0.0 8.0 11.0 3.0
123 13 1 0.0 8.0 12.0 3.0
124 13 1 0.0 8.0 12.0 2.0
125 13 1 0.0000 7.0 12.0 2.0
126 13 3 3.3901 7.360947570824873 11.756209716700507 2.360947570824873
127 13 7 -4.3901 7.3609565945141435 11.756203621943426 2.3609565945141435
128 15 5 1.9817 7.721895141649746 11.512419433401016 2.721895141649746
129 15 9 -0.9817 7.721904165339017 11.512413338643933 2.7219041653390166
130 13 1 0.0 7.0 12.0 3.0
131 13 1 0.0 7.0 12.0 4.0
132 13 1 0.0 8.0 12.0 4.0
133 13 1 0.0 8.0 11.0 4.0
134 13 1 0.0 8.0 11.0 5.0
135 13 1 0.0 7.0 11.0 5.0
136 13 1 0.0000 7.0 10.0 5.0
137 13 3 3.3901 7.510456949966159 10.0 4.756209716700508
138 13 7 -4.3901 7.5104697113899075 10.0 4.756203621943426
139 16 5 1.9817 8.020913899932317 10.0 4.512419433401016
140 16 9 -0.9817 8.020926661356066 10.0 4.512413338643933
141 13 1 0.0 7.0 9.0 5.0
142 13 1 0.0 7.0 9.0 4.0
143 13 1 0.0 7.0 9.0 3.0
144 13 1 0.0 7.0 8.0 3.0
145 13 1 0.0 7.0 8.0 4.0
146 13 1 0.0 7.0 7.0 4.0
147 13 1 0.0000 7.0 6.0 4.0
148 13 3 3.3901 7.360947570824873 5.639052429175127 3.756209716700508
149 13 7 -4.3901 7.3609565945141435 5.6390434054858565 3.7562036219434254
150 17 5 1.9817 7.721895141649746 5.278104858350254 3.512419433401016
151 17 9 -0.9817 7.721904165339017 5.278095834660983 3.5124133386439333
152 13 1 0.0 6.0 6.0 4.0
153 13 1 0.0 6.0 6.0 3.0
154 13 1 0.0 5.0 6.0 3.0
155 13 1 0.0 5.0 5.0 3.0
156 13 1 0.0 5.0 5.0 2.0
157 13 1 0.0 5.0 5.0 1.0
158 13 1 0.0000 4.0 5.0 1.0
159 13 3 3.3901 3.6022334458530745 5.059695366689228 0.602233445853074
160 13 7 -4.3901 3.602223501689221 5.059696859073394 0.6022235016892203
161 18 5 1.9817 3.2044668917061485 5.119390733378455 0.20446689170614807
162 18 9 -0.9817 3.204456947542295 5.119392225762622 0.20445694754229438
163 13 1 0.0 4.0 5.0 1.9999999999999998
164 13 1 0.0 4.0 6.0 2.0
165 13 1 0.0 4.0 6.0 1.0
166 19 1 0.0 3.0 6.0 0.9999999999999999
167 19 1 0.0 3.0 5.0 1.0
168 19 1 0.0 2.0 5.0 1.0
169 19 1 0.0000 1.0 5.0 1.0
170 19 3 3.3901 1.2828427124746191 4.6 1.2828427124746191
171 19 7 -4.3901 1.282849783542431 4.59999 1.2828497835424308
172 20 5 1.9817 1.5656854249492382 4.2 1.5656854249492382
173 20 9 -0.9817 1.56569249601705 4.199990000000001 1.56569249601705
174 19 1 0.0 1.0 5.0 1.9999999999999998
175 19 1 0.0 1.0 5.0 3.0
176 19 1 0.0 1.0 6.0 3.0
177 19 1 0.0 1.0 6.0 2.0
178 19 1 0.0 1.0 7.0 2.0
179 19 1 0.0 1.0 7.0 3.0
180 19 1 0.0000 1.0 8.0 3.0
181 19 3 3.3901 1.4000000000000001 8.282842712474618 3.282842712474619
182 19 7 -4.3901 1.40001 8.282849783542432 3.2828497835424306
183 21 5 1.9817 1.8000000000000003 8.565685424949239 3.565685424949238
184 21 9 -0.9817 1.8000100000000003 8.56569249601705 3.56569249601705
185 19 1 0.0 1.0 8.0 2.0
186 19 1 0.0 1.9999999999999998 8.0 1.9999999999999998
187 19 1 0.0 2.0 8.0 1.0
188 19 1 0.0 1.0 8.0 1.0
189 19 1 0.0 1.0 9.0 1.0
190 19 1 0.0 2.0 9.0 1.0
191 19 1 0.0000 2.0 9.0 2.0
192 19 3 3.3901 2.360947570824873 8.756209716700507 2.360947570824873
193 19 7 -4.3901 2.3609565945141435 8.756203621943426 2.3609565945141435
194 22 5 1.9817 2.721895141649746 8.512419433401016 2.721895141649746
195 22 9 -0.9817 2.721904165339017 8.512413338643933 2.7219041653390166
196 19 1 0.0 1.0 9.0 2.0
197 19 1 0.0 0.9999999999999999 10.0 2.0
198 19 1 0.0 1.0 10.0 1.0
199 19 1 0.0 2.0 10.0 1.0
200 19 1 0.0 2.0 11.0 0.9999999999999999
201 19 1 0.0 2.0 12.0 1.0
202 19 1 0.0000 2.0 12.0 2.0
203 19 3 3.3901 1.4497461389076896 11.907208059743843 1.9072080597438432
204 19 7 -4.3901 1.4497323825611623 11.907205739945336 1.9072057399453368
205 23 5 1.9817 0.8994922778153789 11.814416119487685 1.8144161194876864
206 23 9 -0.9817 0.8994785214688517 11.814413799689179 1.81441379968918
207 19 1 0.0 2.0 11.0 2.0
208 19 1 0.0 2.0 10.0 2.0
209 19 1 0.0 1.9999999999999998 10.0 3.0
210 19 1 0.0 1.0 10.0 3.0
211 19 1 0.0 1.0 9.0 3.0
212 19 1 0.0 2.0 9.0 3.0
213 19 1 0.0000 2.0 8.0 3.0
214 19 3 3.3901 1.9403046333107723 7.602233445853074 2.6022334458530745
215 19 7 -4.3901 1.9403031409266052 7.60222350168922 2.602223501689221
216 24 5 1.9817 1.8806092666215446 7.204466891706147 2.2044668917061485
217 24 9 -0.9817 1.8806077742373772 7.204456947542294 2.204456947542295
218 19 1 0.0 2.0 8.0 4.0
219 19 1 0.0 2.0 9.0 4.0
220 19 1 0.0 2.0 10.0 4.0
221 25 1 0.0 3.0 10.0 4.0
222 25 1 0.0 3.0 10.0 5.0
223 25 1 0.0 3.0 11.0 5.0
224 25 1 0.0000 3.0 12.0 5.0
225 25 3 3.3901 2.717157287525381 12.282842712474618 4.6
226 25 7 -4.3901 2.7171502164575694 12.282849783542432 4.59999
227 26 5 1.9817 2.434314575050762 12.565685424949239 4.2
228 26 9 -0.9817 2.43430750398295 12.56569249601705 4.19999
229 25 1 0.0 4.0 12.0 5.0
230 25 1 0.0 5.0 12.0 5.0
231 25 1 0.0 6.0 12.0 5.0
232 25 1 0.0 6.0 12.0 4.0
233 25 1 0.0 6.0 12.0 3.0
234 25 1 0.0 5.0 12.0 3.0
235 25 1 0.0000 5.0 12.0 4.0
236 25 3 3.3901 5.282842712474619 12.4 4.282842712474619
237 25 7 -4.3901 5.282849783542431 12.40001 4.282849783542431
238 27 5 1.9817 5.565685424949238 12.8 4.565685424949238
239 27 9 -0.9817 5.56569249601705 12.80001 4.56569249601705
240 25 1 0.0 4.0 12.0 4.0
241 25 1 0.0 3.9999999999999996 12.0 3.0
242 25 1 0.0 4.0 12.0 2.0
243 25 1 0.0 4.0 12.0 1.0
244 25 1 0.0 3.0 12.0 1.0
245 25 1 0.0 3.0 12.0 2.0
246 25 1 0.0000 3.0 12.0 3.0
247 25 3 3.3901 3.282842712474619 12.4 3.282842712474619
248 25 7 -4.3901 3.2828497835424306 12.40001 3.282849783542431
249 28 5 1.9817 3.565685424949238 12.8 3.5656854249492382
250 28 9 -0.9817 3.56569249601705 12.80001 3.56569249601705
251 25 1 0.0 2.0 12.0 3.0
252 25 1 0.0 1.0 12.0 3.0
253 25 1 0.0 1.0 12.0 2.0
254 25 1 0.0 1.0 12.0 1.0
255 25 1 0.0 1.0 11.0 1.0
256 25 1 0.0 1.0 11.0 2.0
257 25 1 0.0000 1.0 11.0 3.0
258 25 3 3.3901 0.7171572875253809 10.6 3.282842712474619
259 25 7 -4.3901 0.717150216457569 10.59999 3.2828497835424306
260 29 5 1.9817 0.43431457505076176 10.2 3.565685424949238
261 29 9 -0.9817 0.4343075039829499 10.19999 3.56569249601705
262 25 1 0.0 1.9999999999999998 11.0 3.0
263 25 1 0.0 2.0 11.0 4.0
264 25 1 0.0 2.0 11.0 5.0
265 25 1 0.0 1.0 11.0 5.0
266 25 1 0.0 1.0 11.0 6.0
267 25 1 0.0 1.0 11.0 7.0
268 25 1 0.0000 1.0 11.0 8.0
269 25 3 3.3901 0.6 10.6 8.0
270 25 7 -4.3901 0.59999 10.59999 8.0
271 30 5 1.9817 0.19999999999999996 10.2 8.0
272 30 9 -0.9817 0.19999 10.19999 8.0
273 25 1 0.0 1.0 11.0 9.0
274 25 1 0.0 1.0 10.0 9.0
275 25 1 0.0 1.0 9.0 9.0
276 31 1 0.0 1.0 9.0 10.0
277 31 1 0.0 1.0 9.0 11.0
278 31 1 0.0 1.0 8.0 11.0
279 31 1 0.0000 0.9999999999999999 7.0 11.0
280 31 3 3.3901 0.5999999999999999 7.282842712474619 11.282842712474618
281 31 7 -4.3901 0.5999899999999999 7.282849783542431 11.282849783542432
282 32 5 1.9817 0.19999999999999984 7.565685424949238 11.565685424949239
283 32 9 -0.9817 0.1999899999999999 7.56569249601705 11.56569249601705
284 31 1 0.0 1.0 7.0 12.0
285 31 1 0.0 1.0 8.0 12.0
286 31 1 0.0 1.0 9.0 12.0
287 31 1 0.0 1.0 10.0 12.0
288 31 1 0.0 1.0 11.0 12.0
289 31 1 0.0 1.0 12.0 12.0
290 31 1 0.0000 1.0 12.0 11.0
291 31 3 3.3901 0.6390524291751271 11.756209716700509 10.639052429175127
292 31 7 -4.3901 0.6390434054858565 11.756203621943426 10.639043405485856
293 33 5 1.9817 0.2781048583502541 11.512419433401016 10.278104858350254
294 33 9 -0.9817 0.27809583466098353 11.512413338643933 10.278095834660983
295 31 1 0.0 2.0 12.0 11.0
296 31 1 0.0 3.0 12.0 11.0
297 31 1 0.0 3.0 11.0 11.0
298 31 1 0.0 3.0 11.0 10.0
299 31 1 0.0 3.0 11.0 9.0
300 31 1 0.0 2.0 11.0 9.0
301 31 1 0.0000 2.0 11.0 8.0
302 31 3 3.3901 1.756209716700508 11.360947570824873 8.360947570824873
303 31 7 -4.3901 1.7562036219434256 11.360956594514143 8.360956594514143
304 34 5 1.9817 1.5124194334010161 11.721895141649746 8.721895141649746
305 34 9 -0.9817 1.5124133386439338 11.721904165339016 8.721904165339016
306 31 1 0.0 2.0 12.0 8.0
307 31 1 0.0 2.0 12.0 9.0
308 31 1 0.0 1.9999999999999998 12.0 10.0
309 31 1 0.0 2.0 11.0 10.0
310 31 1 0.0 2.0 11.0 11.0
311 31 1 0.0 1.0 11.0 11.0
312 31 1 0.0000 1.0 10.0 11.0
313 31 3 3.3901 1.4 10.282842712474618 10.717157287525382
314 31 7 -4.3901 1.40001 10.282849783542432 10.717150216457568
315 35 5 1.9817 1.7999999999999998 10.565685424949239 10.434314575050763
316 35 9 -0.9817 1.8000099999999999 10.56569249601705 10.43430750398295
317 31 1 0.0 1.0 10.0 10.0
318 31 1 0.0 1.0 11.0 10.0
319 31 1 0.0 1.0 12.0 10.0
320 31 1 0.0 1.0 12.0 9.0
321 31 1 0.0 1.0 12.0 8.0
322 31 1 0.0 1.0 12.0 7.0
323 31 1 0.0000 1.0 12.0 6.0
324 31 3 3.3901 1.4 12.4 6.0
325 31 7 -4.3901 1.40001 12.40001 6.0
326 36 5 1.9817 1.7999999999999998 12.799999999999999 6.0
327 36 9 -0.9817 1.8000099999999999 12.80001 6.0
328 31 1 0.0 1.0 12.0 5.0
329 31 1 0.0 2.0 12.0 5.0
330 31 1 0.0 2.0 12.0 6.0
331 37 1 0.0 2.0 11.0 6.0
332 37 1 0.0 2.0 10.0 6.0
333 37 1 0.0 2.0 10.0 5.0
334 37 1 0.0000 2.0 9.0 5.0
335 37 3 3.3901 2.4 9.282842712474618 5.282842712474619
336 37 7 -4.3901 2.40001 9.282849783542432 5.282849783542431
337 38 5 1.9817 2.8 9.565685424949239 5.565685424949238
338 38 9 -0.9817 2.80001 9.56569249601705 5.56569249601705
339 37 1 0.0 2.0 9.0 6.0
340 37 1 0.0 3.0 9.0 6.0
341 37 1 0.0 3.0 8.0 6.0
342 37 1 0.0 3.0 8.0 7.0
343 37 1 0.0 3.0 8.0 8.0
344 37 1 0.0 3.0 8.0 9.0
345 37 1 0.0000 4.0 8.0 9.0
346 37 3 3.3901 3.6109117634475467 8.131227620389172 8.610911763447547
347 37 7 -4.3901 3.610902036241633 8.13123090107968 8.610902036241633
348 39 5 1.9817 3.2218235268950934 8.262455240778342 8.221823526895093
349 39 9 -0.9817 3.22181379968918 8.262458521468853 8.22181379968918
350 37 1 0.0 4.0 8.0 8.0
351 37 1 0.0 3.9999999999999996 9.0 8.0
352 37 1 0.0 4.0 10.0 8.0
353 37 1 0.0 4.0 11.0 7.999999999999999
354 37 1 0.0 5.0 11.0 8.0
355 37 1 0.0 5.0 11.0 9.0
356 37 1 0.0000 4.0 11.0 9.0
357 37 3 3.3901 4.3359052606428214 11.335905260642821 8.692859459294354
358 37 7 -4.3901 4.335913658274338 11.335913658274338 8.692851780780837
359 40 5 1.9817 4.671810521285643 11.671810521285643 8.385718918588708
360 40 9 -0.9817 4.671818918917158 11.671818918917158 8.38571124007519
361 37 1 0.0 4.0 12.0 9.0
362 37 1 0.0 3.0 12.0 9.0
363 37 1 0.0 3.0 12.0 10.0
364 37 1 0.0 3.9999999999999996 12.0 10.0
365 37 1 0.0 4.0 12.0 11.0
366 37 1 0.0 4.0 11.0 11.0
367 37 1 0.0000 3.9999999999999996 11.0 10.0
368 37 3 3.3901 4.059695366689227 10.602233445853074 10.397766554146926
369 37 7 -4.3901 4.059696859073394 10.60222350168922 10.39777649831078
370 41 5 1.9817 4.119390733378454 10.204466891706149 10.795533108293851
371 41 9 -0.9817 4.119392225762621 10.204456947542294 10.795543052457706
372 37 1 0.0 4.0 10.0 10.0
373 37 1 0.0 5.0 10.0 10.0
374 37 1 0.0 5.0 9.0 10.0
375 37 1 0.0 6.0 9.0 10.0
376 37 1 0.0 6.0 8.0 10.0
377 37 1 0.0 6.0 8.0 9.0
378 37 1 0.0000 6.0 8.0 8.0
379 37 3 3.3901 6.04221099859137 7.437473144467005 7.9577890014086305
380 37 7 -4.3901 6.0422120538663355 7.437459081295617 7.957787946133665
381 42 5 1.9817 6.084421997182741 6.8749462889340105 7.91557800281726
382 42 9 -0.9817 6.084423052457706 6.874932225762622 7.915576947542296
383 37 1 0.0 5.0 7.999999999999999 8.0
384 37 1 0.0 5.0 7.0 8.0
385 37 1 0.0 4.0 7.0 7.999999999999999
386 43 1 0.0 3.0 7.0 8.0
387 43 1 0.0 2.0 7.0 7.999999999999999
388 43 1 0.0 2.0 8.0 8.0
389 43 1 0.0000 1.0 8.0 8.0
390 43 3 3.3901 1.3609475708248728 8.243790283299493 7.639052429175127
391 43 7 -4.3901 1.3609565945141435 8.243796378056574 7.6390434054858565
392 44 5 1.9817 1.7218951416497457 8.487580566598984 7.278104858350254
393 44 9 -0.9817 1.7219041653390166 8.487586661356067 7.278095834660983
394 43 1 0.0 1.0 8.0 7.0
395 43 1 0.0 1.0 7.999999999999999 6.0
396 43 1 0.0 0.9999999999999999 7.0 6.0
397 43 1 0.0 1.0 7.0 5.0
398 43 1 0.0 2.0 7.0 5.0
399 43 1 0.0 2.0 7.0 6.0
400 43 1 0.0000 2.0 8.0 6.0
401 43 3 3.3901 1.4895430500338416 7.827614237491539 5.82761423749154
402 43 7 -4.3901 1.4895302886100925 7.827609927847477 5.827609927847477
403 45 5 1.9817 0.9790861000676832 7.655228474983079 5.65522847498308
404 45 9 -0.9817 0.9790733386439339 7.655224165339016 5.655224165339017
405 43 1 0.0 2.0 8.0 5.0
406 43 1 0.0 1.0 8.0 5.0
407 43 1 0.0 0.9999999999999999 9.0 5.0
408 43 1 0.0 1.0 10.0 5.0
409 43 1 0.0 1.0 10.0 6.0
410 43 1 0.0 1.0 9.0 6.0
411 43 1 0.0000 1.0 9.0 7.0
412 43 3 3.3901 0.48954305003384113 8.82761423749154 7.17238576250846
413 43 7 -4.3901 0.48953028861009207 8.827609927847478 7.172390072152522
414 46 5 1.9817 -0.020913899932317737 8.65522847498308 7.344771525016919
415 46 9 -0.9817 -0.0209266613560668 8.655224165339016 7.344775834660982
416 43 1 0.0 1.0 10.0 7.0
417 43 1 0.0 0.9999999999999999 10.0 8.0
418 43 1 0.0 1.0 9.0 8.0
419 43 1 0.0 2.0 9.0 8.0
420 43 1 0.0 2.0 9.0 7.0
421 43 1 0.0 1.9999999999999998 8.0 7.0
422 43 1 0.0000 2.0 7.0 7.0
423 43 3 3.3901 1.717157287525381 6.7171572875253815 7.4
424 43 7 -4.3901 1.7171502164575694 6.717150216457569 7.40001
425 47 5 1.9817 1.4343145750507622 6.434314575050762 7.800000000000001
426 47 9 -0.9817 1.4343075039829505 6.434307503982951 7.80001
427 43 1 0.0 3.0 7.0 7.0
428 43 1 0.0 3.0 7.0 6.0
429 43 1 0.0 3.9999999999999996 7.0 6.0
430 43 1 0.0 5.0 7.0 6.0
431 43 1 0.0 6.0 7.0 6.0
432 43 1 0.0 7.0 7.0 6.0
433 43 1 0.0000 7.0 7.0 7.0
434 43 3 3.3901 6.756209716700508 6.489543050033841 7.0
435 43 7 -4.3901 6.756203621943425 6.4895302886100925 7.0
436 48 5 1.9817 6.512419433401015 5.979086100067683 7.0
437 48 9 -0.9817 6.512413338643933 5.979073338643934 7.0
438 43 1 0.0 7.0 7.0 8.0
439 43 1 0.0 6.0 7.0 7.999999999999999
440 43 1 0.0 6.0 7.0 7.0
441 49 1 0.0 5.0 7.0 7.0
442 49 1 0.0 5.0 6.0 7.0
443 49 1 0.0 4.0 6.0 7.0
444 49 1 0.0000 4.0 7.0 7.0
445 49 3 3.3901 3.6 7.0 7.4
446 49 7 -4.3901 3.59999 7.0 7.40001
447 50 5 1.9817 3.2 7.0 7.8
448 50 9 -0.9817 3.19999 7.0 7.80001
449 49 1 0.0 4.0 8.0 7.0
450 49 1 0.0 5.0 8.0 7.0
451 49 1 0.0 6.0 8.0 7.0
452 49 1 0.0 6.0 8.0 6.0
453 49 1 0.0 5.0 8.0 6.0
454 49 1 0.0 4.0 8.0 6.0
455 49 1 0.0000 4.0 8.0 5.0
456 49 3 3.3901 4.510456949966159 8.17238576250846 5.17238576250846
457 49 7 -4.3901 4.5104697113899075 8.172390072152522 5.172390072152523
458 51 5 1.9817 5.020913899932317 8.34477152501692 5.344771525016921
459 51 9 -0.9817 5.020926661356066 8.344775834660982 5.344775834660984
460 49 1 0.0 4.0 9.0 5.0
461 49 1 0.0 3.0 9.0 5.0
462 49 1 0.0 3.0 9.0 4.0
463 49 1 0.0 3.0 8.0 4.0
464 49 1 0.0 3.0 8.0 5.0
465 49 1 0.0 3.0 7.0 5.0
466 49 1 0.0000 3.0 7.0 4.0
467 49 3 3.3901 2.8276142374915394 7.510456949966159 3.82761423749154
468 49 7 -4.3901 2.827609927847477 7.5104697113899075 3.8276099278474773
469 52 5 1.9817 2.6552284749830792 8.020913899932317 3.6552284749830797
470 52 9 -0.9817 2.6552241653390163 8.020926661356066 3.6552241653390167
471 49 1 0.0 4.0 7.0 4.0
472 49 1 0.0 4.0 6.0 3.9999999999999996
473 49 1 0.0 5.0 6.0 4.0
474 49 1 0.0 5.0 6.0 5.0
475 49 1 0.0 5.0 6.0 6.0
476 49 1 0.0 4.0 6.0 6.0
477 49 1 0.0000 3.9999999999999996 5.0 6.0
478 49 3 3.3901 4.131227620389171 5.389088236552453 6.389088236552453
479 49 7 -4.3901 4.131230901079681 5.389097963758367 6.389097963758367
480 53 5 1.9817 4.262455240778342 5.778176473104907 6.778176473104907
481 53 9 -0.9817 4.262458521468852 5.77818620031082 6.77818620031082
482 49 1 0.0 4.0 5.0 7.0
483 49 1 0.0 3.0 5.0 7.0
484 49 1 0.0 2.0 5.0 7.0
485 49 1 0.0 1.0 5.0 7.0
486 49 1 0.0 1.0 4.0 7.0
487 49 1 0.0 1.0 4.0 8.0
488 49 1 0.0000 1.0 3.0 8.0
489 49 3 3.3901 0.6545064993781203 3.316728780684705 8.316728780684704
490 49 7 -4.3901 0.6544978620406048 3.3167366989042217 8.316736698904222
491 54 5 1.9817 0.30901299875624066 3.633457561369409 8.633457561369408
492 54 9 -0.9817 0.3090043614187251 3.633465479588926 8.633465479588926
493 49 1 0.0 1.0 3.0 9.0
494 49 1 0.0 0.9999999999999999 3.0 10.0
495 49 1 0.0 1.0 2.0 10.0
496 55 1 0.0 2.0 1.9999999999999998 10.0
497 55 1 0.0 2.0 2.0 11.0
498 55 1 0.0 1.0 2.0 11.0
499 55 1 0.0000 1.0 3.0 11.0
500 55 3 3.3901 1.2437902832994918 3.0 10.489543050033841
501 55 7 -4.3901 1.2437963780565742 3.0 10.489530288610093
502 56 5 1.9817 1.4875805665989836 3.0 9.979086100067683
503 56 9 -0.9817 1.487586661356066 3.0 9.979073338643934
504 55 1 0.0 1.0 3.9999999999999996 11.0
505 55 1 0.0 2.0 4.0 11.0
506 55 1 0.0 2.0 4.0 12.0
507 55 1 0.0 1.0 4.0 12.0
508 55 1 0.0 1.0 5.0 12.0
509 55 1 0.0 1.9999999999999998 5.0 12.0
510 55 1 0.0000 2.0 5.0 11.0
511 55 3 3.3901 2.397766554146926 5.059695366689227 11.397766554146926
512 55 7 -4.3901 2.3977764983107797 5.059696859073394 11.39777649831078
513 57 5 1.9817 2.795533108293852 5.119390733378454 11.795533108293853
514 57 9 -0.9817 2.7955430524577056 5.119392225762621 11.795543052457706
515 55 1 0.0 3.0 5.0 11.0
516 55 1 0.0 3.0 4.0 11.0
517 55 1 0.0 4.0 3.9999999999999996 11.0
518 55 1 0.0 4.0 4.0 10.0
519 55 1 0.0 4.0 4.0 9.0
520 55 1 0.0 4.0 4.0 8.0
521 55 1 0.0000 4.0 3.0 8.0
522 55 3 3.3901 4.562526855532995 3.0 7.940304633310773
523 55 7 -4.3901 4.562540918704383 3.0 7.940303140926606
524 58 5 1.9817 5.1250537110659895 3.0 7.880609266621546
525 58 9 -0.9817 5.125067774237378 2.9999999999999996 7.880607774237379
526 55 1 0.0 4.0 2.0 8.0
527 55 1 0.0 4.0 1.0 7.999999999999999
528 55 1 0.0 5.0 1.0 8.0
529 55 1 0.0 5.0 1.0 9.0
530 55 1 0.0 5.0 1.0 10.0
531 55 1 0.0 5.0 2.0 10.0
532 55 1 0.0000 6.0 1.9999999999999998 10.0
533 55 3 3.3901 5.9577890014086305 1.9577890014086299 9.437473144467004
534 55 7 -4.3901 5.957787946133665 1.957787946133665 9.437459081295616
535 59 5 1.9817 5.91557800281726 1.9155780028172598 8.87494628893401
536 59 9 -0.9817 5.915576947542296 1.915576947542295 8.874932225762622
537 55 1 0.0 6.0 1.0 10.0
538 55 1 0.0 7.0 0.9999999999999999 10.0
539 55 1 0.0 8.0 1.0 10.0
540 55 1 0.0 8.0 0.9999999999999999 11.0
541 55 1 0.0 8.0 1.0 12.0
542 55 1 0.0 8.0 0.9999999999999999 13.0
543 55 1 0.0000 7.0 1.0 13.0
544 55 3 3.3901 6.602233445853074 0.9403046333107732 13.397766554146926
545 55 7 -4.3901 6.60222350168922 0.9403031409266058 13.39777649831078
546 60 5 1.9817 6.204466891706147 0.8806092666215463 13.795533108293853
547 60 9 -0.9817 6.204456947542294 0.8806077742373789 13.795543052457706
548 55 1 0.0 7.0 1.0 12.0
549 55 1 0.0 7.0 1.0 11.0
550 55 1 0.0 6.0 1.0 11.0
551 61 1 0.0 5.0 1.0 11.0
552 61 1 0.0 5.0 2.0 11.0
553 61 1 0.0 5.0 2.0 12.0
554 61 1 0.0000 4.0 2.0 12.0
555 61 3 3.3901 4.282842712474619 1.717157287525381 11.6
556 61 7 -4.3901 4.282849783542431 1.7171502164575694 11.59999
557 62 5 1.9817 4.565685424949239 1.4343145750507622 11.2
558 62 9 -0.9817 4.56569249601705 1.4343075039829505 11.19999
559 61 1 0.0 4.0 1.0 12.0
560 61 1 0.0 5.0 1.0 12.0
561 61 1 0.0 6.0 1.0 12.0
562 61 1 0.0 6.0 2.0 12.0
563 61 1 0.0 7.0 2.0 12.0
564 61 1 0.0 7.0 2.0 13.0
565 61 1 0.0000 7.999999999999999 2.0 13.0
566 61 3 3.3901 7.999999999999999 2.5104569499661586 12.756209716700507
567 61 7 -4.3901 7.999999999999999 2.510469711389908 12.756203621943426
568 63 5 1.9817 7.999999999999999 3.0209138999323173 12.512419433401016
569 63 9 -0.9817 7.999999999999999 3.0209266613560666 12.512413338643933
570 61 1 0.0 9.0 2.0 13.0
571 61 1 0.0 9.0 2.0 12.0
572 61 1 0.0 8.0 2.0 12.0
573 61 1 0.0 8.0 3.0 12.0
574 61 1 0.0 8.0 3.0 13.0
575 61 1 0.0 8.0 4.0 13.0
576 61 1 0.0000 8.0 5.0 13.0
577 61 3 3.3901 8.510456949966159 5.17238576250846 13.17238576250846
578 61 7 -4.3901 8.510469711389907 5.172390072152523 13.172390072152524
579 64 5 1.9817 9.020913899932317 5.34477152501692 13.34477152501692
580 64 9 -0.9817 9.020926661356066 5.344775834660983 13.344775834660984
581 61 1 0.0 8.0 5.0 12.0
582 61 1 0.0 8.0 4.0 12.0
583 61 1 0.0 9.0 4.0 12.0
584 61 1 0.0 9.0 3.0 12.0
585 61 1 0.0 9.0 3.0 11.0
586 61 1 0.0 10.0 3.0 11.0
587 61 1 0.0000 10.0 3.0 12.0
588 61 3 3.3901 9.717157287525382 3.4 12.282842712474618
589 61 7 -4.3901 9.717150216457568 3.40001 12.28284978354243
590 65 5 1.9817 9.434314575050761 3.8 12.565685424949237
591 65 9 -0.9817 9.43430750398295 3.8000099999999994 12.56569249601705
592 61 1 0.0 11.0 3.0 12.0
593 61 1 0.0 11.0 3.0 13.0
594 61 1 0.0 10.0 3.0 13.0
595 61 1 0.0 9.0 3.0 13.0
596 61 1 0.0 9.0 4.0 13.0
597 61 1 0.0 10.0 4.0 13.0
598 61 1 0.0000 10.0 4.0 12.0
599 61 3 3.3901 9.82761423749154 3.4895430500338414 11.82761423749154
600 61 7 -4.3901 9.827609927847478 3.4895302886100925 11.827609927847478
601 66 5 1.9817 9.65522847498308 2.979086100067683 11.65522847498308
602 66 9 -0.9817 9.655224165339016 2.979073338643934 11.655224165339018
603 61 1 0.0 11.0 4.0 12.0
604 61 1 0.0 11.0 4.0 13.0
605 61 1 0.0 12.0 4.0 13.0
606 67 1 0.0 12.0 4.0 12.0
607 67 1 0.0 12.0 3.0 12.0
608 67 1 0.0 12.0 3.0 13.0
609 67 1 0.0000 12.0 2.0 13.0
610 67 3 3.3901 12.4 2.0 13.4
611 67 7 -4.3901 12.40001 2.0 13.40001
612 68 5 1.9817 12.8 2.0 13.8
613 68 9 -0.9817 12.80001 2.0 13.80001
614 67 1 0.0 12.0 1.0 13.0
615 67 1 0.0 12.0 1.0 12.0
616 67 1 0.0 12.0 1.0 11.0
617 67 1 0.0 12.0 2.0 11.0
618 67 1 0.0 12.0 2.0 12.0
619 67 1 0.0 11.0 1.9999999999999998 12.0
620 67 1 0.0000 11.0 1.0 12.0
621 67 3 3.3901 10.756209716700509 1.360947570824873 12.360947570824873
622 67 7 -4.3901 10.756203621943426 1.3609565945141437 12.360956594514143
623 69 5 1.9817 10.512419433401016 1.721895141649746 12.721895141649746
624 69 9 -0.9817 10.512413338643933 1.7219041653390168 12.721904165339016
625 67 1 0.0 11.0 1.0 13.0
626 67 1 0.0 11.0 1.9999999999999998 13.0
627 67 1 0.0 10.0 2.0 13.0
628 67 1 0.0 10.0 1.0 13.0
629 67 1 0.0 9.0 0.9999999999999999 13.0
630 67 1 0.0 9.0 1.0 12.0
631 67 1 0.0000 10.0 1.0 12.0
632 67 3 3.3901 10.04221099859137 0.9577890014086297 12.562526855532994
633 67 7 -4.3901 10.042212053866335 0.9577879461336649 12.562540918704382
634 70 5 1.9817 10.08442199718274 0.9155780028172592 13.12505371106599
635 70 9 -0.9817 10.084423052457705 0.9155769475422944 13.125067774237378
636 67 1 0.0 10.0 2.0 12.0
637 67 1 0.0 10.0 2.0 11.0
638 67 1 0.0 11.0 1.9999999999999998 11.0
639 67 1 0.0 11.0 2.0 10.0
640 67 1 0.0 11.0 3.0 10.0
641 67 1 0.0 11.0 3.0 11.0
642 67 1 0.0000 12.0 3.0 11.0
643 67 3 3.3901 11.95778900140863 2.4374731444670052 10.95778900140863
644 67 7 -4.3901 11.957787946133665 2.437459081295617 10.957787946133665
645 71 5 1.9817 11.91557800281726 1.874946288934011 10.91557800281726
646 71 9 -0.9817 11.915576947542295 1.8749322257626226 10.915576947542295
647 67 1 0.0 12.0 3.0 10.0
648 67 1 0.0 12.0 2.0 10.0
649 67 1 0.0 12.0 2.0 9.0
650 67 1 0.0 11.0 2.0 9.0
651 67 1 0.0 11.0 2.0 8.0
652 67 1 0.0 10.0 1.9999999999999998 8.0
653 67 1 0.0000 10.0 1.0 7.999999999999999
654 67 3 3.3901 10.17238576250846 1.1723857625084602 8.510456949966159
655 67 7 -4.3901 10.172390072152522 1.1723900721525229 8.510469711389907
656 72 5 1.9817 10.34477152501692 1.3447715250169203 9.020913899932317
657 72 9 -0.9817 10.344775834660982 1.344775834660983 9.020926661356066
658 67 1 0.0 11.0 0.9999999999999999 8.0
659 67 1 0.0 11.0 1.0 9.0
660 67 1 0.0 10.0 1.0 9.0
661 73 1 0.0 10.0 2.0 9.0
662 73 1 0.0 10.0 3.0 9.0
663 73 1 0.0 10.0 4.0 9.0
664 73 1 0.0000 10.0 5.0 9.0
665 73 3 3.3901 9.6 4.717157287525381 9.282842712474618
666 73 7 -4.3901 9.59999 4.717150216457569 9.282849783542432
667 74 5 1.9817 9.2 4.434314575050762 9.565685424949239
668 74 9 -0.9817 9.19999 4.43430750398295 9.56569249601705
669 73 1 0.0 10.0 5.0 10.0
670 73 1 0.0 10.0 4.0 10.0
671 73 1 0.0 9.0 3.9999999999999996 10.0
672 73 1 0.0 9.0 4.0 9.0
673 73 1 0.0 9.0 5.0 9.0
674 73 1 0.0 9.0 5.0 10.0
675 73 1 0.0000 8.0 5.0 10.0
676 73 3 3.3901 8.0 4.940304633310772 10.562526855532996
677 73 7 -4.3901 8.0 4.940303140926606 10.562540918704382
678 75 5 1.9817 8.0 4.880609266621545 11.12505371106599
679 75 9 -0.9817 8.0 4.880607774237378 11.125067774237378
680 73 1 0.0 7.0 5.0 10.0
681 73 1 0.0 6.0 5.0 10.0
682 73 1 0.0 5.0 5.0 10.0
683 73 1 0.0 5.0 5.0 11.0
684 73 1 0.0 5.0 5.0 12.0
685 73 1 0.0 5.0 6.0 12.0
686 73 1 0.0000 5.0 6.0 13.0
687 73 3 3.3901 5.562526855532995 5.95778900140863 13.04221099859137
688 73 7 -4.3901 5.562540918704383 5.957787946133665 13.042212053866335
689 76 5 1.9817 6.1250537110659895 5.915578002817259 13.08442199718274
690 76 9 -0.9817 6.125067774237378 5.915576947542295 13.084423052457705
691 73 1 0.0 5.0 7.0 13.0
692 73 1 0.0 6.0 7.0 13.0
693 73 1 0.0 6.0 7.0 12.0
694 73 1 0.0 6.0 8.0 12.0
695 73 1 0.0 6.0 8.0 11.0
696 73 1 0.0 6.0 7.0 11.0
697 73 1 0.0000 5.0 7.0 11.0
698 73 3 3.3901 5.282842712474619 6.717157287525381 11.4
699 73 7 -4.3901 5.282849783542431 6.717150216457569 11.40001
700 77 5 1.9817 5.565685424949238 6.434314575050762 11.8
701 77 9 -0.9817 5.56569249601705 6.43430750398295 11.80001
702 73 1 0.0 5.0 6.0 11.0
703 73 1 0.0 6.0 6.0 11.0
704 73 1 0.0 6.0 6.0 10.0
705 73 1 0.0 7.0 6.0 10.0
706 73 1 0.0 7.0 6.0 11.0
707 73 1 0.0 8.0 6.0 11.0
708 73 1 0.0000 9.0 6.0 11.0
709 73 3 3.3901 9.360947570824873 6.243790283299492 11.360947570824873
710 73 7 -4.3901 9.360956594514144 6.243796378056574 11.360956594514144
711 78 5 1.9817 9.721895141649746 6.487580566598984 11.721895141649746
712 78 9 -0.9817 9.721904165339017 6.487586661356066 11.721904165339017
713 73 1 0.0 9.0 6.0 10.0
714 73 1 0.0 9.0 6.0 9.0
715 73 1 0.0 9.0 6.0 8.0
716 79 1 0.0 8.0 6.0 8.0
717 79 1 0.0 7.999999999999999 7.0 8.0
718 79 1 0.0 8.0 8.0 8.0